<?xml version="1.0" encoding="UTF-8"?>

<!-- generated on 2026-02-23T08:22:14.899907+01:00 by Eclipse SUMO sumo v1_26_0+0300-a22ff4fd66a
<sumoConfiguration xmlns:xsi="http://www.w3.org/2001/XMLSchema-instance" xsi:noNamespaceSchemaLocation="http://sumo.dlr.de/xsd/sumoConfiguration.xsd">

    <input>
        <net-file value="input_net2.net.xml"/>
        <load-state value="state.xml"/>
    </input>

    <output>
        <vehroute-output value="vehroutes2.xml"/>
    </output>

    <report>
        <duration-log.disable value="true"/>
        <no-step-log value="true"/>
    </report>

</sumoConfiguration>
-->

<routes xmlns:xsi="http://www.w3.org/2001/XMLSchema-instance" xsi:noNamespaceSchemaLocation="http://sumo.dlr.de/xsd/routes_file.xsd">
    <vehicle id="v.5" type="t1" depart="500.00" departSpeed="13.89" speedFactor="1.0131" arrival="549.00">
        <route edges="SC CN"/>
    </vehicle>

    <vehicle id="v.6" type="t2" depart="600.00" departSpeed="13.89" speedFactor="1.0907" arrival="639.00">
        <route edges="SC CN"/>
    </vehicle>

    <vehicle id="v.7" type="t2" depart="700.00" departSpeed="12.8177" speedFactor="0.9228" arrival="730.00">
        <route edges="SC CN"/>
    </vehicle>

    <vehicle id="v.8" type="t1" depart="800.00" departSpeed="13.89" speedFactor="1.1229" arrival="819.00">
        <route edges="SC CN"/>
    </vehicle>

    <vehicle id="v.9" type="t1" depart="900.00" departSpeed="12.5079" speedFactor="0.9005" arrival="916.00">
        <route edges="SC CN"/>
    </vehicle>

</routes>
