<?xml version="1.0" encoding="UTF-8"?>

<!-- generated on 2026-02-17T18:36:05.537867+01:00 by Eclipse SUMO sumo v1_26_0+0252-c1f8bc961c1
This data file and the accompanying materials
are made available under the terms of the Eclipse Public License v2.0
which accompanies this distribution, and is available at
http://www.eclipse.org/legal/epl-v20.html
This file may also be made available under the following Secondary
Licenses when the conditions for such availability set forth in the Eclipse
Public License 2.0 are satisfied: GNU General Public License, version 2
or later which is available at
https://www.gnu.org/licenses/old-licenses/gpl-2.0-standalone.html
SPDX-License-Identifier: EPL-2.0 OR GPL-2.0-or-later
<sumoConfiguration xmlns:xsi="http://www.w3.org/2001/XMLSchema-instance" xsi:noNamespaceSchemaLocation="http://sumo.dlr.de/xsd/sumoConfiguration.xsd">

    <input>
        <net-file value="net.net.xml"/>
        <route-files value="input_routes.rou.xml"/>
    </input>

    <output>
        <write-license value="true"/>
        <tripinfo-output value="tripinfos.xml"/>
        <tripinfo-output.write-unfinished value="true"/>
        <stop-output value="stopinfos.xml"/>
    </output>

    <processing>
        <default.speeddev value="0"/>
    </processing>

    <report>
        <xml-validation value="never"/>
        <duration-log.disable value="true"/>
        <no-step-log value="true"/>
    </report>

</sumoConfiguration>
-->

<tripinfos xmlns:xsi="http://www.w3.org/2001/XMLSchema-instance" xsi:noNamespaceSchemaLocation="http://sumo.dlr.de/xsd/tripinfo_file.xsd">
    <personinfo id="p0" depart="0.00" type="DEFAULT_PEDTYPE" speedFactor="1.00" duration="187.00" waitingTime="74.00" timeLoss="5.23" traveltime="113.00">
        <ride waitingTime="74.00" vehicle="t_0" depart="74.00" arrival="187.00" arrivalPos="285.60" duration="113.00" routeLength="580.60" timeLoss="5.23"/>
    </personinfo>
    <personinfo id="p1" depart="150.00" type="DEFAULT_PEDTYPE" speedFactor="1.00" duration="182.00" waitingTime="72.00" timeLoss="2.93" traveltime="110.00">
        <ride waitingTime="72.00" vehicle="t_0" depart="222.00" arrival="332.00" arrivalPos="287.60" duration="110.00" routeLength="582.61" timeLoss="2.93"/>
    </personinfo>
    <tripinfo id="t_0" depart="0.00" departLane="A0B0_1" departPos="5.10" departSpeed="0.00" departDelay="0.00" arrival="-1.00" arrivalLane="" arrivalPos="-1.00" arrivalSpeed="-1.00" duration="335.00" routeLength="2259.48" waitingTime="8.00" waitingCount="2" stopTime="125.00" timeLoss="23.33" rerouteNo="4" devices="tripinfo_t_0 routing_t_0 taxi_t_0 person_t_0" vType="taxi" speedFactor="1.00" vaporized="">
        <taxi customers="2" occupiedDistance="1163.21" occupiedTime="109.00"/>
    </tripinfo>
    <tripinfo id="t_1" depart="3.00" departLane="A0B0_1" departPos="5.10" departSpeed="0.00" departDelay="3.00" arrival="-1.00" arrivalLane="" arrivalPos="-1.00" arrivalSpeed="-1.00" duration="332.00" routeLength="66.43" waitingTime="0.00" waitingCount="0" stopTime="323.00" timeLoss="1.35" rerouteNo="2" devices="tripinfo_t_1 routing_t_1 taxi_t_1" vType="taxi" speedFactor="1.00" vaporized="end">
        <taxi customers="0" occupiedDistance="0.00" occupiedTime="0.00"/>
    </tripinfo>
</tripinfos>
